# vtk DataFile Version 2.0
Mesh
ASCII
DATASET POLYDATA
POINTS 253 float
-2 -1 0
-2 -0.833333 0
-2 -0.666667 0
-2 -0.5 0
-2 -0.333333 0
-2 -0.166667 0
-2 0 0
-2 0.166667 0
-2 0.333333 0
-2 0.5 0
-2 0.666667 0
-2 0.833333 0
-2 1 0
-1.83333 -1 0
-1.83333 -0.666667 0
-1.83333 -0.333333 0
-1.83333 0 0
-1.83333 0.333333 0
-1.83333 0.666667 0
-1.83333 1 0
-1.66667 -1 0
-1.66667 -0.833333 0
-1.66667 -0.666667 0
-1.66667 -0.5 0
-1.66667 -0.333333 0
-1.66667 -0.166667 0
-1.66667 0 0
-1.66667 0.166667 0
-1.66667 0.333333 0
-1.66667 0.5 0
-1.66667 0.666667 0
-1.66667 0.833333 0
-1.66667 1 0
-1.5 -1 0
-1.5 -0.666667 0
-1.5 -0.333333 0
-1.5 0 0
-1.5 0.333333 0
-1.5 0.666667 0
-1.5 1 0
-1.33333 -1 0
-1.33333 -0.833333 0
-1.33333 -0.666667 0
-1.33333 -0.5 0
-1.33333 -0.333333 0
-1.33333 -0.166667 0
-1.33333 0 0
-1.33333 0.166667 0
-1.33333 0.333333 0
-1.33333 0.5 0
-1.33333 0.666667 0
-1.33333 0.833333 0
-1.33333 1 0
-1.16667 -1 0
-1.16667 -0.666667 0
-1.16667 -0.333333 0
-1.16667 0 0
-1.16667 0.333333 0
-1.16667 0.666667 0
-1.16667 1 0
-1 -1 0
-1 -0.833333 0
-1 -0.666667 0
-1 -0.5 0
-1 -0.333333 0
-1 -0.166667 0
-1 0 0
-1 0.166667 0
-1 0.333333 0
-1 0.5 0
-1 0.666667 0
-1 0.833333 0
-1 1 0
-0.833333 -1 0
-0.833333 -0.666667 0
-0.833333 -0.333333 0
-0.833333 0 0
-0.833333 0.333333 0
-0.833333 0.666667 0
-0.833333 1 0
-0.666667 -1 0
-0.666667 -0.833333 0
-0.666667 -0.666667 0
-0.666667 -0.5 0
-0.666667 -0.333333 0
-0.666667 -0.166667 0
-0.666667 0 0
-0.666667 0.166667 0
-0.666667 0.333333 0
-0.666667 0.5 0
-0.666667 0.666667 0
-0.666667 0.833333 0
-0.666667 1 0
-0.5 -1 0
-0.5 -0.666667 0
-0.5 -0.333333 0
-0.5 0 0
-0.5 0.333333 0
-0.5 0.666667 0
-0.5 1 0
-0.333333 -1 0
-0.333333 -0.833333 0
-0.333333 -0.666667 0
-0.333333 -0.5 0
-0.333333 -0.333333 0
-0.333333 -0.166667 0
-0.333333 0 0
-0.333333 0.166667 0
-0.333333 0.333333 0
-0.333333 0.5 0
-0.333333 0.666667 0
-0.333333 0.833333 0
-0.333333 1 0
-0.166667 -1 0
-0.166667 -0.666667 0
-0.166667 -0.333333 0
-0.166667 0 0
-0.166667 0.333333 0
-0.166667 0.666667 0
-0.166667 1 0
0 -1 0
0 -0.833333 0
0 -0.666667 0
0 -0.5 0
0 -0.333333 0
0 -0.166667 0
0 0 0
0 0.166667 0
0 0.333333 0
0 0.5 0
0 0.666667 0
0 0.833333 0
0 1 0
0.166667 -1 0
0.166667 -0.666667 0
0.166667 -0.333333 0
0.166667 0 0
0.166667 0.333333 0
0.166667 0.666667 0
0.166667 1 0
0.333333 -1 0
0.333333 -0.833333 0
0.333333 -0.666667 0
0.333333 -0.5 0
0.333333 -0.333333 0
0.333333 -0.166667 0
0.333333 0 0
0.333333 0.166667 0
0.333333 0.333333 0
0.333333 0.5 0
0.333333 0.666667 0
0.333333 0.833333 0
0.333333 1 0
0.5 -1 0
0.5 -0.666667 0
0.5 -0.333333 0
0.5 0 0
0.5 0.333333 0
0.5 0.666667 0
0.5 1 0
0.666667 -1 0
0.666667 -0.833333 0
0.666667 -0.666667 0
0.666667 -0.5 0
0.666667 -0.333333 0
0.666667 -0.166667 0
0.666667 0 0
0.666667 0.166667 0
0.666667 0.333333 0
0.666667 0.5 0
0.666667 0.666667 0
0.666667 0.833333 0
0.666667 1 0
0.833333 -1 0
0.833333 -0.666667 0
0.833333 -0.333333 0
0.833333 0 0
0.833333 0.333333 0
0.833333 0.666667 0
0.833333 1 0
1 -1 0
1 -0.833333 0
1 -0.666667 0
1 -0.5 0
1 -0.333333 0
1 -0.166667 0
1 0 0
1 0.166667 0
1 0.333333 0
1 0.5 0
1 0.666667 0
1 0.833333 0
1 1 0
1.16667 -1 0
1.16667 -0.666667 0
1.16667 -0.333333 0
1.16667 0 0
1.16667 0.333333 0
1.16667 0.666667 0
1.16667 1 0
1.33333 -1 0
1.33333 -0.833333 0
1.33333 -0.666667 0
1.33333 -0.5 0
1.33333 -0.333333 0
1.33333 -0.166667 0
1.33333 0 0
1.33333 0.166667 0
1.33333 0.333333 0
1.33333 0.5 0
1.33333 0.666667 0
1.33333 0.833333 0
1.33333 1 0
1.5 -1 0
1.5 -0.666667 0
1.5 -0.333333 0
1.5 0 0
1.5 0.333333 0
1.5 0.666667 0
1.5 1 0
1.66667 -1 0
1.66667 -0.833333 0
1.66667 -0.666667 0
1.66667 -0.5 0
1.66667 -0.333333 0
1.66667 -0.166667 0
1.66667 0 0
1.66667 0.166667 0
1.66667 0.333333 0
1.66667 0.5 0
1.66667 0.666667 0
1.66667 0.833333 0
1.66667 1 0
1.83333 -1 0
1.83333 -0.666667 0
1.83333 -0.333333 0
1.83333 0 0
1.83333 0.333333 0
1.83333 0.666667 0
1.83333 1 0
2 -1 0
2 -0.833333 0
2 -0.666667 0
2 -0.5 0
2 -0.333333 0
2 -0.166667 0
2 0 0
2 0.166667 0
2 0.333333 0
2 0.5 0
2 0.666667 0
2 0.833333 0
2 1 0
POLYGONS 72 648
8 22 14 2 1 0 13 20 21 
8 24 15 4 3 2 14 22 23 
8 26 16 6 5 4 15 24 25 
8 28 17 8 7 6 16 26 27 
8 30 18 10 9 8 17 28 29 
8 32 19 12 11 10 18 30 31 
8 42 34 22 21 20 33 40 41 
8 44 35 24 23 22 34 42 43 
8 46 36 26 25 24 35 44 45 
8 48 37 28 27 26 36 46 47 
8 50 38 30 29 28 37 48 49 
8 52 39 32 31 30 38 50 51 
8 62 54 42 41 40 53 60 61 
8 64 55 44 43 42 54 62 63 
8 66 56 46 45 44 55 64 65 
8 68 57 48 47 46 56 66 67 
8 70 58 50 49 48 57 68 69 
8 72 59 52 51 50 58 70 71 
8 82 74 62 61 60 73 80 81 
8 84 75 64 63 62 74 82 83 
8 86 76 66 65 64 75 84 85 
8 88 77 68 67 66 76 86 87 
8 90 78 70 69 68 77 88 89 
8 92 79 72 71 70 78 90 91 
8 102 94 82 81 80 93 100 101 
8 104 95 84 83 82 94 102 103 
8 106 96 86 85 84 95 104 105 
8 108 97 88 87 86 96 106 107 
8 110 98 90 89 88 97 108 109 
8 112 99 92 91 90 98 110 111 
8 122 114 102 101 100 113 120 121 
8 124 115 104 103 102 114 122 123 
8 126 116 106 105 104 115 124 125 
8 128 117 108 107 106 116 126 127 
8 130 118 110 109 108 117 128 129 
8 132 119 112 111 110 118 130 131 
8 142 134 122 121 120 133 140 141 
8 144 135 124 123 122 134 142 143 
8 146 136 126 125 124 135 144 145 
8 148 137 128 127 126 136 146 147 
8 150 138 130 129 128 137 148 149 
8 152 139 132 131 130 138 150 151 
8 162 154 142 141 140 153 160 161 
8 164 155 144 143 142 154 162 163 
8 166 156 146 145 144 155 164 165 
8 168 157 148 147 146 156 166 167 
8 170 158 150 149 148 157 168 169 
8 172 159 152 151 150 158 170 171 
8 182 174 162 161 160 173 180 181 
8 184 175 164 163 162 174 182 183 
8 186 176 166 165 164 175 184 185 
8 188 177 168 167 166 176 186 187 
8 190 178 170 169 168 177 188 189 
8 192 179 172 171 170 178 190 191 
8 202 194 182 181 180 193 200 201 
8 204 195 184 183 182 194 202 203 
8 206 196 186 185 184 195 204 205 
8 208 197 188 187 186 196 206 207 
8 210 198 190 189 188 197 208 209 
8 212 199 192 191 190 198 210 211 
8 222 214 202 201 200 213 220 221 
8 224 215 204 203 202 214 222 223 
8 226 216 206 205 204 215 224 225 
8 228 217 208 207 206 216 226 227 
8 230 218 210 209 208 217 228 229 
8 232 219 212 211 210 218 230 231 
8 242 234 222 221 220 233 240 241 
8 244 235 224 223 222 234 242 243 
8 246 236 226 225 224 235 244 245 
8 248 237 228 227 226 236 246 247 
8 250 238 230 229 228 237 248 249 
8 252 239 232 231 230 238 250 251 
CELL_DATA 72
SCALARS ElementID int 1
LOOKUP_TABLE default
0
1
2
3
4
5
6
7
8
9
10
11
12
13
14
15
16
17
18
19
20
21
22
23
24
25
26
27
28
29
30
31
32
33
34
35
36
37
38
39
40
41
42
43
44
45
46
47
48
49
50
51
52
53
54
55
56
57
58
59
60
61
62
63
64
65
66
67
68
69
70
71

POINT_DATA 253
SCALARS NodeID int 1
LOOKUP_TABLE my_table
0
1
2
3
4
5
6
7
8
9
10
11
12
13
14
15
16
17
18
19
20
21
22
23
24
25
26
27
28
29
30
31
32
33
34
35
36
37
38
39
40
41
42
43
44
45
46
47
48
49
50
51
52
53
54
55
56
57
58
59
60
61
62
63
64
65
66
67
68
69
70
71
72
73
74
75
76
77
78
79
80
81
82
83
84
85
86
87
88
89
90
91
92
93
94
95
96
97
98
99
100
101
102
103
104
105
106
107
108
109
110
111
112
113
114
115
116
117
118
119
120
121
122
123
124
125
126
127
128
129
130
131
132
133
134
135
136
137
138
139
140
141
142
143
144
145
146
147
148
149
150
151
152
153
154
155
156
157
158
159
160
161
162
163
164
165
166
167
168
169
170
171
172
173
174
175
176
177
178
179
180
181
182
183
184
185
186
187
188
189
190
191
192
193
194
195
196
197
198
199
200
201
202
203
204
205
206
207
208
209
210
211
212
213
214
215
216
217
218
219
220
221
222
223
224
225
226
227
228
229
230
231
232
233
234
235
236
237
238
239
240
241
242
243
244
245
246
247
248
249
250
251
252