# vtk DataFile Version 2.0
Mesh
ASCII
DATASET POLYDATA
POINTS 800 float
2 0 0
1.91667 0 0
1.83333 0 0
1.75 0 0
1.66667 0 0
1.58333 0 0
1.5 0 0
1.41667 0 0
1.33333 0 0
1.25 0 0
1.16667 0 0
1.08333 0 0
1 0 0
1.99383 -0.156918 0
1.82768 -0.143842 0
1.66153 -0.130765 0
1.49538 -0.117689 0
1.32922 -0.104612 0
1.16307 -0.0915356 0
0.996917 -0.0784591 0
1.99383 0.156918 0
1.82768 0.143842 0
1.66153 0.130765 0
1.49538 0.117689 0
1.32922 0.104612 0
1.16307 0.0915356 0
0.996917 0.0784591 0
1.97538 -0.312869 0
1.89307 -0.299833 0
1.81076 -0.286797 0
1.72845 -0.27376 0
1.64615 -0.260724 0
1.56384 -0.247688 0
1.48153 -0.234652 0
1.39923 -0.221615 0
1.31692 -0.208579 0
1.23461 -0.195543 0
1.1523 -0.182507 0
1.07 -0.169471 0
0.987688 -0.156434 0
1.97538 0.312869 0
1.89307 0.299833 0
1.81076 0.286797 0
1.72845 0.27376 0
1.64615 0.260724 0
1.56384 0.247688 0
1.48153 0.234652 0
1.39923 0.221615 0
1.31692 0.208579 0
1.23461 0.195543 0
1.1523 0.182507 0
1.07 0.169471 0
0.987688 0.156434 0
1.94474 -0.466891 0
1.78268 -0.427983 0
1.62062 -0.389076 0
1.45855 -0.350168 0
1.29649 -0.31126 0
1.13443 -0.272353 0
0.97237 -0.233445 0
1.94474 0.466891 0
1.78268 0.427983 0
1.62062 0.389076 0
1.45855 0.350168 0
1.29649 0.31126 0
1.13443 0.272353 0
0.97237 0.233445 0
1.90211 -0.618034 0
1.82286 -0.592283 0
1.7436 -0.566531 0
1.66435 -0.54078 0
1.58509 -0.515028 0
1.50584 -0.489277 0
1.42658 -0.463525 0
1.34733 -0.437774 0
1.26808 -0.412023 0
1.18882 -0.386271 0
1.10957 -0.36052 0
1.03031 -0.334768 0
0.951057 -0.309017 0
1.90211 0.618034 0
1.82286 0.592283 0
1.7436 0.566531 0
1.66435 0.54078 0
1.58509 0.515028 0
1.50584 0.489277 0
1.42658 0.463525 0
1.34733 0.437774 0
1.26808 0.412023 0
1.18882 0.386271 0
1.10957 0.36052 0
1.03031 0.334768 0
0.951057 0.309017 0
1.84776 -0.765367 0
1.69378 -0.701586 0
1.5398 -0.637806 0
1.38582 -0.574025 0
1.23184 -0.510245 0
1.07786 -0.446464 0
0.92388 -0.382683 0
1.84776 0.765367 0
1.69378 0.701586 0
1.5398 0.637806 0
1.38582 0.574025 0
1.23184 0.510245 0
1.07786 0.446464 0
0.92388 0.382683 0
1.78201 -0.907981 0
1.70776 -0.870148 0
1.63351 -0.832316 0
1.55926 -0.794483 0
1.48501 -0.756651 0
1.41076 -0.718818 0
1.33651 -0.680986 0
1.26226 -0.643153 0
1.18801 -0.605321 0
1.11376 -0.567488 0
1.03951 -0.529656 0
0.965257 -0.491823 0
0.891007 -0.45399 0
1.78201 0.907981 0
1.70776 0.870148 0
1.63351 0.832316 0
1.55926 0.794483 0
1.48501 0.756651 0
1.41076 0.718818 0
1.33651 0.680986 0
1.26226 0.643153 0
1.18801 0.605321 0
1.11376 0.567488 0
1.03951 0.529656 0
0.965257 0.491823 0
0.891007 0.45399 0
1.70528 -1.045 0
1.56317 -0.957914 0
1.42107 -0.870831 0
1.27896 -0.783748 0
1.13685 -0.696665 0
0.994747 -0.609582 0
0.85264 -0.522499 0
1.70528 1.045 0
1.56317 0.957914 0
1.42107 0.870831 0
1.27896 0.783748 0
1.13685 0.696665 0
0.994747 0.609582 0
0.85264 0.522499 0
1.61803 -1.17557 0
1.55062 -1.12659 0
1.4832 -1.07761 0
1.41578 -1.02862 0
1.34836 -0.979642 0
1.28094 -0.93066 0
1.21353 -0.881678 0
1.14611 -0.832696 0
1.07869 -0.783714 0
1.01127 -0.734732 0
0.943853 -0.685749 0
0.876435 -0.636767 0
0.809017 -0.587785 0
1.61803 1.17557 0
1.55062 1.12659 0
1.4832 1.07761 0
1.41578 1.02862 0
1.34836 0.979642 0
1.28094 0.93066 0
1.21353 0.881678 0
1.14611 0.832696 0
1.07869 0.783714 0
1.01127 0.734732 0
0.943853 0.685749 0
0.876435 0.636767 0
0.809017 0.587785 0
1.52081 -1.2989 0
1.39408 -1.19065 0
1.26734 -1.08241 0
1.14061 -0.974172 0
1.01387 -0.865931 0
0.88714 -0.757689 0
0.760406 -0.649448 0
1.52081 1.2989 0
1.39408 1.19065 0
1.26734 1.08241 0
1.14061 0.974172 0
1.01387 0.865931 0
0.88714 0.757689 0
0.760406 0.649448 0
1.41421 -1.41421 0
1.35529 -1.35529 0
1.29636 -1.29636 0
1.23744 -1.23744 0
1.17851 -1.17851 0
1.11959 -1.11959 0
1.06066 -1.06066 0
1.00173 -1.00173 0
0.942809 -0.942809 0
0.883883 -0.883883 0
0.824958 -0.824958 0
0.766032 -0.766032 0
0.707107 -0.707107 0
1.41421 1.41421 0
1.35529 1.35529 0
1.29636 1.29636 0
1.23744 1.23744 0
1.17851 1.17851 0
1.11959 1.11959 0
1.06066 1.06066 0
1.00173 1.00173 0
0.942809 0.942809 0
0.883883 0.883883 0
0.824958 0.824958 0
0.766032 0.766032 0
0.707107 0.707107 0
1.2989 -1.52081 0
1.19065 -1.39408 0
1.08241 -1.26734 0
0.974172 -1.14061 0
0.865931 -1.01387 0
0.757689 -0.88714 0
0.649448 -0.760406 0
1.2989 1.52081 0
1.19065 1.39408 0
1.08241 1.26734 0
0.974172 1.14061 0
0.865931 1.01387 0
0.757689 0.88714 0
0.649448 0.760406 0
1.17557 -1.61803 0
1.12659 -1.55062 0
1.07761 -1.4832 0
1.02862 -1.41578 0
0.979642 -1.34836 0
0.93066 -1.28094 0
0.881678 -1.21353 0
0.832696 -1.14611 0
0.783714 -1.07869 0
0.734732 -1.01127 0
0.685749 -0.943853 0
0.636767 -0.876435 0
0.587785 -0.809017 0
1.17557 1.61803 0
1.12659 1.55062 0
1.07761 1.4832 0
1.02862 1.41578 0
0.979642 1.34836 0
0.93066 1.28094 0
0.881678 1.21353 0
0.832696 1.14611 0
0.783714 1.07869 0
0.734732 1.01127 0
0.685749 0.943853 0
0.636767 0.876435 0
0.587785 0.809017 0
1.045 -1.70528 0
0.957914 -1.56317 0
0.870831 -1.42107 0
0.783748 -1.27896 0
0.696665 -1.13685 0
0.609582 -0.994747 0
0.522499 -0.85264 0
1.045 1.70528 0
0.957914 1.56317 0
0.870831 1.42107 0
0.783748 1.27896 0
0.696665 1.13685 0
0.609582 0.994747 0
0.522499 0.85264 0
0.907981 -1.78201 0
0.870148 -1.70776 0
0.832316 -1.63351 0
0.794483 -1.55926 0
0.756651 -1.48501 0
0.718818 -1.41076 0
0.680986 -1.33651 0
0.643153 -1.26226 0
0.605321 -1.18801 0
0.567488 -1.11376 0
0.529656 -1.03951 0
0.491823 -0.965257 0
0.45399 -0.891007 0
0.907981 1.78201 0
0.870148 1.70776 0
0.832316 1.63351 0
0.794483 1.55926 0
0.756651 1.48501 0
0.718818 1.41076 0
0.680986 1.33651 0
0.643153 1.26226 0
0.605321 1.18801 0
0.567488 1.11376 0
0.529656 1.03951 0
0.491823 0.965257 0
0.45399 0.891007 0
0.765367 -1.84776 0
0.701586 -1.69378 0
0.637806 -1.5398 0
0.574025 -1.38582 0
0.510245 -1.23184 0
0.446464 -1.07786 0
0.382683 -0.92388 0
0.765367 1.84776 0
0.701586 1.69378 0
0.637806 1.5398 0
0.574025 1.38582 0
0.510245 1.23184 0
0.446464 1.07786 0
0.382683 0.92388 0
0.618034 -1.90211 0
0.592283 -1.82286 0
0.566531 -1.7436 0
0.54078 -1.66435 0
0.515028 -1.58509 0
0.489277 -1.50584 0
0.463525 -1.42658 0
0.437774 -1.34733 0
0.412023 -1.26808 0
0.386271 -1.18882 0
0.36052 -1.10957 0
0.334768 -1.03031 0
0.309017 -0.951057 0
0.618034 1.90211 0
0.592283 1.82286 0
0.566531 1.7436 0
0.54078 1.66435 0
0.515028 1.58509 0
0.489277 1.50584 0
0.463525 1.42658 0
0.437774 1.34733 0
0.412023 1.26808 0
0.386271 1.18882 0
0.36052 1.10957 0
0.334768 1.03031 0
0.309017 0.951057 0
0.466891 -1.94474 0
0.427983 -1.78268 0
0.389076 -1.62062 0
0.350168 -1.45855 0
0.31126 -1.29649 0
0.272353 -1.13443 0
0.233445 -0.97237 0
0.466891 1.94474 0
0.427983 1.78268 0
0.389076 1.62062 0
0.350168 1.45855 0
0.31126 1.29649 0
0.272353 1.13443 0
0.233445 0.97237 0
0.312869 -1.97538 0
0.299833 -1.89307 0
0.286797 -1.81076 0
0.27376 -1.72845 0
0.260724 -1.64615 0
0.247688 -1.56384 0
0.234652 -1.48153 0
0.221615 -1.39923 0
0.208579 -1.31692 0
0.195543 -1.23461 0
0.182507 -1.1523 0
0.169471 -1.07 0
0.156434 -0.987688 0
0.312869 1.97538 0
0.299833 1.89307 0
0.286797 1.81076 0
0.27376 1.72845 0
0.260724 1.64615 0
0.247688 1.56384 0
0.234652 1.48153 0
0.221615 1.39923 0
0.208579 1.31692 0
0.195543 1.23461 0
0.182507 1.1523 0
0.169471 1.07 0
0.156434 0.987688 0
0.156918 -1.99383 0
0.143842 -1.82768 0
0.130765 -1.66153 0
0.117689 -1.49538 0
0.104612 -1.32922 0
0.0915356 -1.16307 0
0.0784591 -0.996917 0
0.156918 1.99383 0
0.143842 1.82768 0
0.130765 1.66153 0
0.117689 1.49538 0
0.104612 1.32922 0
0.0915356 1.16307 0
0.0784591 0.996917 0
-3.67394e-16 -2 0
-3.52086e-16 -1.91667 0
-3.36778e-16 -1.83333 0
-3.2147e-16 -1.75 0
-3.06162e-16 -1.66667 0
-2.90854e-16 -1.58333 0
-2.75546e-16 -1.5 0
-2.60237e-16 -1.41667 0
-2.44929e-16 -1.33333 0
-2.29621e-16 -1.25 0
-2.14313e-16 -1.16667 0
-1.99005e-16 -1.08333 0
-1.83697e-16 -1 0
1.22465e-16 2 0
1.17362e-16 1.91667 0
1.12259e-16 1.83333 0
1.07157e-16 1.75 0
1.02054e-16 1.66667 0
9.69512e-17 1.58333 0
9.18485e-17 1.5 0
8.67458e-17 1.41667 0
8.16431e-17 1.33333 0
7.65404e-17 1.25 0
7.14377e-17 1.16667 0
6.6335e-17 1.08333 0
6.12323e-17 1 0
-0.156918 -1.99383 0
-0.143842 -1.82768 0
-0.130765 -1.66153 0
-0.117689 -1.49538 0
-0.104612 -1.32922 0
-0.0915356 -1.16307 0
-0.0784591 -0.996917 0
-0.156918 1.99383 0
-0.143842 1.82768 0
-0.130765 1.66153 0
-0.117689 1.49538 0
-0.104612 1.32922 0
-0.0915356 1.16307 0
-0.0784591 0.996917 0
-0.312869 -1.97538 0
-0.299833 -1.89307 0
-0.286797 -1.81076 0
-0.27376 -1.72845 0
-0.260724 -1.64615 0
-0.247688 -1.56384 0
-0.234652 -1.48153 0
-0.221615 -1.39923 0
-0.208579 -1.31692 0
-0.195543 -1.23461 0
-0.182507 -1.1523 0
-0.169471 -1.07 0
-0.156434 -0.987688 0
-0.312869 1.97538 0
-0.299833 1.89307 0
-0.286797 1.81076 0
-0.27376 1.72845 0
-0.260724 1.64615 0
-0.247688 1.56384 0
-0.234652 1.48153 0
-0.221615 1.39923 0
-0.208579 1.31692 0
-0.195543 1.23461 0
-0.182507 1.1523 0
-0.169471 1.07 0
-0.156434 0.987688 0
-0.466891 -1.94474 0
-0.427983 -1.78268 0
-0.389076 -1.62062 0
-0.350168 -1.45855 0
-0.31126 -1.29649 0
-0.272353 -1.13443 0
-0.233445 -0.97237 0
-0.466891 1.94474 0
-0.427983 1.78268 0
-0.389076 1.62062 0
-0.350168 1.45855 0
-0.31126 1.29649 0
-0.272353 1.13443 0
-0.233445 0.97237 0
-0.618034 -1.90211 0
-0.592283 -1.82286 0
-0.566531 -1.7436 0
-0.54078 -1.66435 0
-0.515028 -1.58509 0
-0.489277 -1.50584 0
-0.463525 -1.42658 0
-0.437774 -1.34733 0
-0.412023 -1.26808 0
-0.386271 -1.18882 0
-0.36052 -1.10957 0
-0.334768 -1.03031 0
-0.309017 -0.951057 0
-0.618034 1.90211 0
-0.592283 1.82286 0
-0.566531 1.7436 0
-0.54078 1.66435 0
-0.515028 1.58509 0
-0.489277 1.50584 0
-0.463525 1.42658 0
-0.437774 1.34733 0
-0.412023 1.26808 0
-0.386271 1.18882 0
-0.36052 1.10957 0
-0.334768 1.03031 0
-0.309017 0.951057 0
-0.765367 -1.84776 0
-0.701586 -1.69378 0
-0.637806 -1.5398 0
-0.574025 -1.38582 0
-0.510245 -1.23184 0
-0.446464 -1.07786 0
-0.382683 -0.92388 0
-0.765367 1.84776 0
-0.701586 1.69378 0
-0.637806 1.5398 0
-0.574025 1.38582 0
-0.510245 1.23184 0
-0.446464 1.07786 0
-0.382683 0.92388 0
-0.907981 -1.78201 0
-0.870148 -1.70776 0
-0.832316 -1.63351 0
-0.794483 -1.55926 0
-0.756651 -1.48501 0
-0.718818 -1.41076 0
-0.680986 -1.33651 0
-0.643153 -1.26226 0
-0.605321 -1.18801 0
-0.567488 -1.11376 0
-0.529656 -1.03951 0
-0.491823 -0.965257 0
-0.45399 -0.891007 0
-0.907981 1.78201 0
-0.870148 1.70776 0
-0.832316 1.63351 0
-0.794483 1.55926 0
-0.756651 1.48501 0
-0.718818 1.41076 0
-0.680986 1.33651 0
-0.643153 1.26226 0
-0.605321 1.18801 0
-0.567488 1.11376 0
-0.529656 1.03951 0
-0.491823 0.965257 0
-0.45399 0.891007 0
-1.045 -1.70528 0
-0.957914 -1.56317 0
-0.870831 -1.42107 0
-0.783748 -1.27896 0
-0.696665 -1.13685 0
-0.609582 -0.994747 0
-0.522499 -0.85264 0
-1.045 1.70528 0
-0.957914 1.56317 0
-0.870831 1.42107 0
-0.783748 1.27896 0
-0.696665 1.13685 0
-0.609582 0.994747 0
-0.522499 0.85264 0
-1.17557 -1.61803 0
-1.12659 -1.55062 0
-1.07761 -1.4832 0
-1.02862 -1.41578 0
-0.979642 -1.34836 0
-0.93066 -1.28094 0
-0.881678 -1.21353 0
-0.832696 -1.14611 0
-0.783714 -1.07869 0
-0.734732 -1.01127 0
-0.685749 -0.943853 0
-0.636767 -0.876435 0
-0.587785 -0.809017 0
-1.17557 1.61803 0
-1.12659 1.55062 0
-1.07761 1.4832 0
-1.02862 1.41578 0
-0.979642 1.34836 0
-0.93066 1.28094 0
-0.881678 1.21353 0
-0.832696 1.14611 0
-0.783714 1.07869 0
-0.734732 1.01127 0
-0.685749 0.943853 0
-0.636767 0.876435 0
-0.587785 0.809017 0
-1.2989 -1.52081 0
-1.19065 -1.39408 0
-1.08241 -1.26734 0
-0.974172 -1.14061 0
-0.865931 -1.01387 0
-0.757689 -0.88714 0
-0.649448 -0.760406 0
-1.2989 1.52081 0
-1.19065 1.39408 0
-1.08241 1.26734 0
-0.974172 1.14061 0
-0.865931 1.01387 0
-0.757689 0.88714 0
-0.649448 0.760406 0
-1.41421 -1.41421 0
-1.35529 -1.35529 0
-1.29636 -1.29636 0
-1.23744 -1.23744 0
-1.17851 -1.17851 0
-1.11959 -1.11959 0
-1.06066 -1.06066 0
-1.00173 -1.00173 0
-0.942809 -0.942809 0
-0.883883 -0.883883 0
-0.824958 -0.824958 0
-0.766032 -0.766032 0
-0.707107 -0.707107 0
-1.41421 1.41421 0
-1.35529 1.35529 0
-1.29636 1.29636 0
-1.23744 1.23744 0
-1.17851 1.17851 0
-1.11959 1.11959 0
-1.06066 1.06066 0
-1.00173 1.00173 0
-0.942809 0.942809 0
-0.883883 0.883883 0
-0.824958 0.824958 0
-0.766032 0.766032 0
-0.707107 0.707107 0
-1.52081 -1.2989 0
-1.39408 -1.19065 0
-1.26734 -1.08241 0
-1.14061 -0.974172 0
-1.01387 -0.865931 0
-0.88714 -0.757689 0
-0.760406 -0.649448 0
-1.52081 1.2989 0
-1.39408 1.19065 0
-1.26734 1.08241 0
-1.14061 0.974172 0
-1.01387 0.865931 0
-0.88714 0.757689 0
-0.760406 0.649448 0
-1.61803 -1.17557 0
-1.55062 -1.12659 0
-1.4832 -1.07761 0
-1.41578 -1.02862 0
-1.34836 -0.979642 0
-1.28094 -0.93066 0
-1.21353 -0.881678 0
-1.14611 -0.832696 0
-1.07869 -0.783714 0
-1.01127 -0.734732 0
-0.943853 -0.685749 0
-0.876435 -0.636767 0
-0.809017 -0.587785 0
-1.61803 1.17557 0
-1.55062 1.12659 0
-1.4832 1.07761 0
-1.41578 1.02862 0
-1.34836 0.979642 0
-1.28094 0.93066 0
-1.21353 0.881678 0
-1.14611 0.832696 0
-1.07869 0.783714 0
-1.01127 0.734732 0
-0.943853 0.685749 0
-0.876435 0.636767 0
-0.809017 0.587785 0
-1.70528 -1.045 0
-1.56317 -0.957914 0
-1.42107 -0.870831 0
-1.27896 -0.783748 0
-1.13685 -0.696665 0
-0.994747 -0.609582 0
-0.85264 -0.522499 0
-1.70528 1.045 0
-1.56317 0.957914 0
-1.42107 0.870831 0
-1.27896 0.783748 0
-1.13685 0.696665 0
-0.994747 0.609582 0
-0.85264 0.522499 0
-1.78201 -0.907981 0
-1.70776 -0.870148 0
-1.63351 -0.832316 0
-1.55926 -0.794483 0
-1.48501 -0.756651 0
-1.41076 -0.718818 0
-1.33651 -0.680986 0
-1.26226 -0.643153 0
-1.18801 -0.605321 0
-1.11376 -0.567488 0
-1.03951 -0.529656 0
-0.965257 -0.491823 0
-0.891007 -0.45399 0
-1.78201 0.907981 0
-1.70776 0.870148 0
-1.63351 0.832316 0
-1.55926 0.794483 0
-1.48501 0.756651 0
-1.41076 0.718818 0
-1.33651 0.680986 0
-1.26226 0.643153 0
-1.18801 0.605321 0
-1.11376 0.567488 0
-1.03951 0.529656 0
-0.965257 0.491823 0
-0.891007 0.45399 0
-1.84776 -0.765367 0
-1.69378 -0.701586 0
-1.5398 -0.637806 0
-1.38582 -0.574025 0
-1.23184 -0.510245 0
-1.07786 -0.446464 0
-0.92388 -0.382683 0
-1.84776 0.765367 0
-1.69378 0.701586 0
-1.5398 0.637806 0
-1.38582 0.574025 0
-1.23184 0.510245 0
-1.07786 0.446464 0
-0.92388 0.382683 0
-1.90211 -0.618034 0
-1.82286 -0.592283 0
-1.7436 -0.566531 0
-1.66435 -0.54078 0
-1.58509 -0.515028 0
-1.50584 -0.489277 0
-1.42658 -0.463525 0
-1.34733 -0.437774 0
-1.26808 -0.412023 0
-1.18882 -0.386271 0
-1.10957 -0.36052 0
-1.03031 -0.334768 0
-0.951057 -0.309017 0
-1.90211 0.618034 0
-1.82286 0.592283 0
-1.7436 0.566531 0
-1.66435 0.54078 0
-1.58509 0.515028 0
-1.50584 0.489277 0
-1.42658 0.463525 0
-1.34733 0.437774 0
-1.26808 0.412023 0
-1.18882 0.386271 0
-1.10957 0.36052 0
-1.03031 0.334768 0
-0.951057 0.309017 0
-1.94474 -0.466891 0
-1.78268 -0.427983 0
-1.62062 -0.389076 0
-1.45855 -0.350168 0
-1.29649 -0.31126 0
-1.13443 -0.272353 0
-0.97237 -0.233445 0
-1.94474 0.466891 0
-1.78268 0.427983 0
-1.62062 0.389076 0
-1.45855 0.350168 0
-1.29649 0.31126 0
-1.13443 0.272353 0
-0.97237 0.233445 0
-1.97538 -0.312869 0
-1.89307 -0.299833 0
-1.81076 -0.286797 0
-1.72845 -0.27376 0
-1.64615 -0.260724 0
-1.56384 -0.247688 0
-1.48153 -0.234652 0
-1.39923 -0.221615 0
-1.31692 -0.208579 0
-1.23461 -0.195543 0
-1.1523 -0.182507 0
-1.07 -0.169471 0
-0.987688 -0.156434 0
-1.97538 0.312869 0
-1.89307 0.299833 0
-1.81076 0.286797 0
-1.72845 0.27376 0
-1.64615 0.260724 0
-1.56384 0.247688 0
-1.48153 0.234652 0
-1.39923 0.221615 0
-1.31692 0.208579 0
-1.23461 0.195543 0
-1.1523 0.182507 0
-1.07 0.169471 0
-0.987688 0.156434 0
-1.99383 -0.156918 0
-1.82768 -0.143842 0
-1.66153 -0.130765 0
-1.49538 -0.117689 0
-1.32922 -0.104612 0
-1.16307 -0.0915356 0
-0.996917 -0.0784591 0
-1.99383 0.156918 0
-1.82768 0.143842 0
-1.66153 0.130765 0
-1.49538 0.117689 0
-1.32922 0.104612 0
-1.16307 0.0915356 0
-0.996917 0.0784591 0
-2 2.44929e-16 0
-1.91667 2.34724e-16 0
-1.83333 2.24519e-16 0
-1.75 2.14313e-16 0
-1.66667 2.04108e-16 0
-1.58333 1.93902e-16 0
-1.5 1.83697e-16 0
-1.41667 1.73492e-16 0
-1.33333 1.63286e-16 0
-1.25 1.53081e-16 0
-1.16667 1.42875e-16 0
-1.08333 1.3267e-16 0
-1 1.22465e-16 0
POLYGONS 240 2160
8 42 21 2 1 0 20 40 41 
8 44 22 4 3 2 21 42 43 
8 46 23 6 5 4 22 44 45 
8 48 24 8 7 6 23 46 47 
8 50 25 10 9 8 24 48 49 
8 52 26 12 11 10 25 50 51 
8 82 61 42 41 40 60 80 81 
8 84 62 44 43 42 61 82 83 
8 86 63 46 45 44 62 84 85 
8 88 64 48 47 46 63 86 87 
8 90 65 50 49 48 64 88 89 
8 92 66 52 51 50 65 90 91 
8 122 101 82 81 80 100 120 121 
8 124 102 84 83 82 101 122 123 
8 126 103 86 85 84 102 124 125 
8 128 104 88 87 86 103 126 127 
8 130 105 90 89 88 104 128 129 
8 132 106 92 91 90 105 130 131 
8 162 141 122 121 120 140 160 161 
8 164 142 124 123 122 141 162 163 
8 166 143 126 125 124 142 164 165 
8 168 144 128 127 126 143 166 167 
8 170 145 130 129 128 144 168 169 
8 172 146 132 131 130 145 170 171 
8 202 181 162 161 160 180 200 201 
8 204 182 164 163 162 181 202 203 
8 206 183 166 165 164 182 204 205 
8 208 184 168 167 166 183 206 207 
8 210 185 170 169 168 184 208 209 
8 212 186 172 171 170 185 210 211 
8 242 221 202 201 200 220 240 241 
8 244 222 204 203 202 221 242 243 
8 246 223 206 205 204 222 244 245 
8 248 224 208 207 206 223 246 247 
8 250 225 210 209 208 224 248 249 
8 252 226 212 211 210 225 250 251 
8 282 261 242 241 240 260 280 281 
8 284 262 244 243 242 261 282 283 
8 286 263 246 245 244 262 284 285 
8 288 264 248 247 246 263 286 287 
8 290 265 250 249 248 264 288 289 
8 292 266 252 251 250 265 290 291 
8 322 301 282 281 280 300 320 321 
8 324 302 284 283 282 301 322 323 
8 326 303 286 285 284 302 324 325 
8 328 304 288 287 286 303 326 327 
8 330 305 290 289 288 304 328 329 
8 332 306 292 291 290 305 330 331 
8 362 341 322 321 320 340 360 361 
8 364 342 324 323 322 341 362 363 
8 366 343 326 325 324 342 364 365 
8 368 344 328 327 326 343 366 367 
8 370 345 330 329 328 344 368 369 
8 372 346 332 331 330 345 370 371 
8 402 381 362 361 360 380 400 401 
8 404 382 364 363 362 381 402 403 
8 406 383 366 365 364 382 404 405 
8 408 384 368 367 366 383 406 407 
8 410 385 370 369 368 384 408 409 
8 412 386 372 371 370 385 410 411 
8 442 421 402 401 400 420 440 441 
8 444 422 404 403 402 421 442 443 
8 446 423 406 405 404 422 444 445 
8 448 424 408 407 406 423 446 447 
8 450 425 410 409 408 424 448 449 
8 452 426 412 411 410 425 450 451 
8 482 461 442 441 440 460 480 481 
8 484 462 444 443 442 461 482 483 
8 486 463 446 445 444 462 484 485 
8 488 464 448 447 446 463 486 487 
8 490 465 450 449 448 464 488 489 
8 492 466 452 451 450 465 490 491 
8 522 501 482 481 480 500 520 521 
8 524 502 484 483 482 501 522 523 
8 526 503 486 485 484 502 524 525 
8 528 504 488 487 486 503 526 527 
8 530 505 490 489 488 504 528 529 
8 532 506 492 491 490 505 530 531 
8 562 541 522 521 520 540 560 561 
8 564 542 524 523 522 541 562 563 
8 566 543 526 525 524 542 564 565 
8 568 544 528 527 526 543 566 567 
8 570 545 530 529 528 544 568 569 
8 572 546 532 531 530 545 570 571 
8 602 581 562 561 560 580 600 601 
8 604 582 564 563 562 581 602 603 
8 606 583 566 565 564 582 604 605 
8 608 584 568 567 566 583 606 607 
8 610 585 570 569 568 584 608 609 
8 612 586 572 571 570 585 610 611 
8 642 621 602 601 600 620 640 641 
8 644 622 604 603 602 621 642 643 
8 646 623 606 605 604 622 644 645 
8 648 624 608 607 606 623 646 647 
8 650 625 610 609 608 624 648 649 
8 652 626 612 611 610 625 650 651 
8 682 661 642 641 640 660 680 681 
8 684 662 644 643 642 661 682 683 
8 686 663 646 645 644 662 684 685 
8 688 664 648 647 646 663 686 687 
8 690 665 650 649 648 664 688 689 
8 692 666 652 651 650 665 690 691 
8 722 701 682 681 680 700 720 721 
8 724 702 684 683 682 701 722 723 
8 726 703 686 685 684 702 724 725 
8 728 704 688 687 686 703 726 727 
8 730 705 690 689 688 704 728 729 
8 732 706 692 691 690 705 730 731 
8 762 741 722 721 720 740 760 761 
8 764 742 724 723 722 741 762 763 
8 766 743 726 725 724 742 764 765 
8 768 744 728 727 726 743 766 767 
8 770 745 730 729 728 744 768 769 
8 772 746 732 731 730 745 770 771 
8 789 781 762 761 760 780 787 788 
8 791 782 764 763 762 781 789 790 
8 793 783 766 765 764 782 791 792 
8 795 784 768 767 766 783 793 794 
8 797 785 770 769 768 784 795 796 
8 799 786 772 771 770 785 797 798 
8 749 774 789 788 787 773 747 748 
8 751 775 791 790 789 774 749 750 
8 753 776 793 792 791 775 751 752 
8 755 777 795 794 793 776 753 754 
8 757 778 797 796 795 777 755 756 
8 759 779 799 798 797 778 757 758 
8 709 734 749 748 747 733 707 708 
8 711 735 751 750 749 734 709 710 
8 713 736 753 752 751 735 711 712 
8 715 737 755 754 753 736 713 714 
8 717 738 757 756 755 737 715 716 
8 719 739 759 758 757 738 717 718 
8 669 694 709 708 707 693 667 668 
8 671 695 711 710 709 694 669 670 
8 673 696 713 712 711 695 671 672 
8 675 697 715 714 713 696 673 674 
8 677 698 717 716 715 697 675 676 
8 679 699 719 718 717 698 677 678 
8 629 654 669 668 667 653 627 628 
8 631 655 671 670 669 654 629 630 
8 633 656 673 672 671 655 631 632 
8 635 657 675 674 673 656 633 634 
8 637 658 677 676 675 657 635 636 
8 639 659 679 678 677 658 637 638 
8 589 614 629 628 627 613 587 588 
8 591 615 631 630 629 614 589 590 
8 593 616 633 632 631 615 591 592 
8 595 617 635 634 633 616 593 594 
8 597 618 637 636 635 617 595 596 
8 599 619 639 638 637 618 597 598 
8 549 574 589 588 587 573 547 548 
8 551 575 591 590 589 574 549 550 
8 553 576 593 592 591 575 551 552 
8 555 577 595 594 593 576 553 554 
8 557 578 597 596 595 577 555 556 
8 559 579 599 598 597 578 557 558 
8 509 534 549 548 547 533 507 508 
8 511 535 551 550 549 534 509 510 
8 513 536 553 552 551 535 511 512 
8 515 537 555 554 553 536 513 514 
8 517 538 557 556 555 537 515 516 
8 519 539 559 558 557 538 517 518 
8 469 494 509 508 507 493 467 468 
8 471 495 511 510 509 494 469 470 
8 473 496 513 512 511 495 471 472 
8 475 497 515 514 513 496 473 474 
8 477 498 517 516 515 497 475 476 
8 479 499 519 518 517 498 477 478 
8 429 454 469 468 467 453 427 428 
8 431 455 471 470 469 454 429 430 
8 433 456 473 472 471 455 431 432 
8 435 457 475 474 473 456 433 434 
8 437 458 477 476 475 457 435 436 
8 439 459 479 478 477 458 437 438 
8 389 414 429 428 427 413 387 388 
8 391 415 431 430 429 414 389 390 
8 393 416 433 432 431 415 391 392 
8 395 417 435 434 433 416 393 394 
8 397 418 437 436 435 417 395 396 
8 399 419 439 438 437 418 397 398 
8 349 374 389 388 387 373 347 348 
8 351 375 391 390 389 374 349 350 
8 353 376 393 392 391 375 351 352 
8 355 377 395 394 393 376 353 354 
8 357 378 397 396 395 377 355 356 
8 359 379 399 398 397 378 357 358 
8 309 334 349 348 347 333 307 308 
8 311 335 351 350 349 334 309 310 
8 313 336 353 352 351 335 311 312 
8 315 337 355 354 353 336 313 314 
8 317 338 357 356 355 337 315 316 
8 319 339 359 358 357 338 317 318 
8 269 294 309 308 307 293 267 268 
8 271 295 311 310 309 294 269 270 
8 273 296 313 312 311 295 271 272 
8 275 297 315 314 313 296 273 274 
8 277 298 317 316 315 297 275 276 
8 279 299 319 318 317 298 277 278 
8 229 254 269 268 267 253 227 228 
8 231 255 271 270 269 254 229 230 
8 233 256 273 272 271 255 231 232 
8 235 257 275 274 273 256 233 234 
8 237 258 277 276 275 257 235 236 
8 239 259 279 278 277 258 237 238 
8 189 214 229 228 227 213 187 188 
8 191 215 231 230 229 214 189 190 
8 193 216 233 232 231 215 191 192 
8 195 217 235 234 233 216 193 194 
8 197 218 237 236 235 217 195 196 
8 199 219 239 238 237 218 197 198 
8 149 174 189 188 187 173 147 148 
8 151 175 191 190 189 174 149 150 
8 153 176 193 192 191 175 151 152 
8 155 177 195 194 193 176 153 154 
8 157 178 197 196 195 177 155 156 
8 159 179 199 198 197 178 157 158 
8 109 134 149 148 147 133 107 108 
8 111 135 151 150 149 134 109 110 
8 113 136 153 152 151 135 111 112 
8 115 137 155 154 153 136 113 114 
8 117 138 157 156 155 137 115 116 
8 119 139 159 158 157 138 117 118 
8 69 94 109 108 107 93 67 68 
8 71 95 111 110 109 94 69 70 
8 73 96 113 112 111 95 71 72 
8 75 97 115 114 113 96 73 74 
8 77 98 117 116 115 97 75 76 
8 79 99 119 118 117 98 77 78 
8 29 54 69 68 67 53 27 28 
8 31 55 71 70 69 54 29 30 
8 33 56 73 72 71 55 31 32 
8 35 57 75 74 73 56 33 34 
8 37 58 77 76 75 57 35 36 
8 39 59 79 78 77 58 37 38 
8 2 14 29 28 27 13 0 1 
8 4 15 31 30 29 14 2 3 
8 6 16 33 32 31 15 4 5 
8 8 17 35 34 33 16 6 7 
8 10 18 37 36 35 17 8 9 
8 12 19 39 38 37 18 10 11 
CELL_DATA 240
SCALARS ElementID int 1
LOOKUP_TABLE default
0
1
2
3
4
5
6
7
8
9
10
11
12
13
14
15
16
17
18
19
20
21
22
23
24
25
26
27
28
29
30
31
32
33
34
35
36
37
38
39
40
41
42
43
44
45
46
47
48
49
50
51
52
53
54
55
56
57
58
59
60
61
62
63
64
65
66
67
68
69
70
71
72
73
74
75
76
77
78
79
80
81
82
83
84
85
86
87
88
89
90
91
92
93
94
95
96
97
98
99
100
101
102
103
104
105
106
107
108
109
110
111
112
113
114
115
116
117
118
119
120
121
122
123
124
125
126
127
128
129
130
131
132
133
134
135
136
137
138
139
140
141
142
143
144
145
146
147
148
149
150
151
152
153
154
155
156
157
158
159
160
161
162
163
164
165
166
167
168
169
170
171
172
173
174
175
176
177
178
179
180
181
182
183
184
185
186
187
188
189
190
191
192
193
194
195
196
197
198
199
200
201
202
203
204
205
206
207
208
209
210
211
212
213
214
215
216
217
218
219
220
221
222
223
224
225
226
227
228
229
230
231
232
233
234
235
236
237
238
239

POINT_DATA 800
SCALARS NodeID int 1
LOOKUP_TABLE my_table
0
1
2
3
4
5
6
7
8
9
10
11
12
13
14
15
16
17
18
19
20
21
22
23
24
25
26
27
28
29
30
31
32
33
34
35
36
37
38
39
40
41
42
43
44
45
46
47
48
49
50
51
52
53
54
55
56
57
58
59
60
61
62
63
64
65
66
67
68
69
70
71
72
73
74
75
76
77
78
79
80
81
82
83
84
85
86
87
88
89
90
91
92
93
94
95
96
97
98
99
100
101
102
103
104
105
106
107
108
109
110
111
112
113
114
115
116
117
118
119
120
121
122
123
124
125
126
127
128
129
130
131
132
133
134
135
136
137
138
139
140
141
142
143
144
145
146
147
148
149
150
151
152
153
154
155
156
157
158
159
160
161
162
163
164
165
166
167
168
169
170
171
172
173
174
175
176
177
178
179
180
181
182
183
184
185
186
187
188
189
190
191
192
193
194
195
196
197
198
199
200
201
202
203
204
205
206
207
208
209
210
211
212
213
214
215
216
217
218
219
220
221
222
223
224
225
226
227
228
229
230
231
232
233
234
235
236
237
238
239
240
241
242
243
244
245
246
247
248
249
250
251
252
253
254
255
256
257
258
259
260
261
262
263
264
265
266
267
268
269
270
271
272
273
274
275
276
277
278
279
280
281
282
283
284
285
286
287
288
289
290
291
292
293
294
295
296
297
298
299
300
301
302
303
304
305
306
307
308
309
310
311
312
313
314
315
316
317
318
319
320
321
322
323
324
325
326
327
328
329
330
331
332
333
334
335
336
337
338
339
340
341
342
343
344
345
346
347
348
349
350
351
352
353
354
355
356
357
358
359
360
361
362
363
364
365
366
367
368
369
370
371
372
373
374
375
376
377
378
379
380
381
382
383
384
385
386
387
388
389
390
391
392
393
394
395
396
397
398
399
400
401
402
403
404
405
406
407
408
409
410
411
412
413
414
415
416
417
418
419
420
421
422
423
424
425
426
427
428
429
430
431
432
433
434
435
436
437
438
439
440
441
442
443
444
445
446
447
448
449
450
451
452
453
454
455
456
457
458
459
460
461
462
463
464
465
466
467
468
469
470
471
472
473
474
475
476
477
478
479
480
481
482
483
484
485
486
487
488
489
490
491
492
493
494
495
496
497
498
499
500
501
502
503
504
505
506
507
508
509
510
511
512
513
514
515
516
517
518
519
520
521
522
523
524
525
526
527
528
529
530
531
532
533
534
535
536
537
538
539
540
541
542
543
544
545
546
547
548
549
550
551
552
553
554
555
556
557
558
559
560
561
562
563
564
565
566
567
568
569
570
571
572
573
574
575
576
577
578
579
580
581
582
583
584
585
586
587
588
589
590
591
592
593
594
595
596
597
598
599
600
601
602
603
604
605
606
607
608
609
610
611
612
613
614
615
616
617
618
619
620
621
622
623
624
625
626
627
628
629
630
631
632
633
634
635
636
637
638
639
640
641
642
643
644
645
646
647
648
649
650
651
652
653
654
655
656
657
658
659
660
661
662
663
664
665
666
667
668
669
670
671
672
673
674
675
676
677
678
679
680
681
682
683
684
685
686
687
688
689
690
691
692
693
694
695
696
697
698
699
700
701
702
703
704
705
706
707
708
709
710
711
712
713
714
715
716
717
718
719
720
721
722
723
724
725
726
727
728
729
730
731
732
733
734
735
736
737
738
739
740
741
742
743
744
745
746
747
748
749
750
751
752
753
754
755
756
757
758
759
760
761
762
763
764
765
766
767
768
769
770
771
772
773
774
775
776
777
778
779
780
781
782
783
784
785
786
787
788
789
790
791
792
793
794
795
796
797
798
799