# vtk DataFile Version 2.0
Mesh
ASCII
DATASET POLYDATA
POINTS 240 float
0.1 0 0
0.12 0 0
0.14 0 0
0.16 0 0
0.18 0 0
0.2 0 0
0.0987688 -0.0156434 0
0.118523 -0.0187721 0
0.138276 -0.0219008 0
0.15803 -0.0250295 0
0.177784 -0.0281582 0
0.197538 -0.0312869 0
0.0987688 0.0156434 0
0.118523 0.0187721 0
0.138276 0.0219008 0
0.15803 0.0250295 0
0.177784 0.0281582 0
0.197538 0.0312869 0
0.0951057 -0.0309017 0
0.114127 -0.037082 0
0.133148 -0.0432624 0
0.152169 -0.0494427 0
0.17119 -0.0556231 0
0.190211 -0.0618034 0
0.0951057 0.0309017 0
0.114127 0.037082 0
0.133148 0.0432624 0
0.152169 0.0494427 0
0.17119 0.0556231 0
0.190211 0.0618034 0
0.0891007 -0.045399 0
0.106921 -0.0544789 0
0.124741 -0.0635587 0
0.142561 -0.0726385 0
0.160381 -0.0817183 0
0.178201 -0.0907981 0
0.0891007 0.045399 0
0.106921 0.0544789 0
0.124741 0.0635587 0
0.142561 0.0726385 0
0.160381 0.0817183 0
0.178201 0.0907981 0
0.0809017 -0.0587785 0
0.097082 -0.0705342 0
0.113262 -0.0822899 0
0.129443 -0.0940456 0
0.145623 -0.105801 0
0.161803 -0.117557 0
0.0809017 0.0587785 0
0.097082 0.0705342 0
0.113262 0.0822899 0
0.129443 0.0940456 0
0.145623 0.105801 0
0.161803 0.117557 0
0.0707107 -0.0707107 0
0.0848528 -0.0848528 0
0.0989949 -0.0989949 0
0.113137 -0.113137 0
0.127279 -0.127279 0
0.141421 -0.141421 0
0.0707107 0.0707107 0
0.0848528 0.0848528 0
0.0989949 0.0989949 0
0.113137 0.113137 0
0.127279 0.127279 0
0.141421 0.141421 0
0.0587785 -0.0809017 0
0.0705342 -0.097082 0
0.0822899 -0.113262 0
0.0940456 -0.129443 0
0.105801 -0.145623 0
0.117557 -0.161803 0
0.0587785 0.0809017 0
0.0705342 0.097082 0
0.0822899 0.113262 0
0.0940456 0.129443 0
0.105801 0.145623 0
0.117557 0.161803 0
0.045399 -0.0891007 0
0.0544789 -0.106921 0
0.0635587 -0.124741 0
0.0726385 -0.142561 0
0.0817183 -0.160381 0
0.0907981 -0.178201 0
0.045399 0.0891007 0
0.0544789 0.106921 0
0.0635587 0.124741 0
0.0726385 0.142561 0
0.0817183 0.160381 0
0.0907981 0.178201 0
0.0309017 -0.0951057 0
0.037082 -0.114127 0
0.0432624 -0.133148 0
0.0494427 -0.152169 0
0.0556231 -0.17119 0
0.0618034 -0.190211 0
0.0309017 0.0951057 0
0.037082 0.114127 0
0.0432624 0.133148 0
0.0494427 0.152169 0
0.0556231 0.17119 0
0.0618034 0.190211 0
0.0156434 -0.0987688 0
0.0187721 -0.118523 0
0.0219008 -0.138276 0
0.0250295 -0.15803 0
0.0281582 -0.177784 0
0.0312869 -0.197538 0
0.0156434 0.0987688 0
0.0187721 0.118523 0
0.0219008 0.138276 0
0.0250295 0.15803 0
0.0281582 0.177784 0
0.0312869 0.197538 0
-1.83697e-17 -0.1 0
-2.20436e-17 -0.12 0
-2.57176e-17 -0.14 0
-2.93915e-17 -0.16 0
-3.30655e-17 -0.18 0
-3.67394e-17 -0.2 0
6.12323e-18 0.1 0
7.34788e-18 0.12 0
8.57253e-18 0.14 0
9.79717e-18 0.16 0
1.10218e-17 0.18 0
1.22465e-17 0.2 0
-0.0156434 -0.0987688 0
-0.0187721 -0.118523 0
-0.0219008 -0.138276 0
-0.0250295 -0.15803 0
-0.0281582 -0.177784 0
-0.0312869 -0.197538 0
-0.0156434 0.0987688 0
-0.0187721 0.118523 0
-0.0219008 0.138276 0
-0.0250295 0.15803 0
-0.0281582 0.177784 0
-0.0312869 0.197538 0
-0.0309017 -0.0951057 0
-0.037082 -0.114127 0
-0.0432624 -0.133148 0
-0.0494427 -0.152169 0
-0.0556231 -0.17119 0
-0.0618034 -0.190211 0
-0.0309017 0.0951057 0
-0.037082 0.114127 0
-0.0432624 0.133148 0
-0.0494427 0.152169 0
-0.0556231 0.17119 0
-0.0618034 0.190211 0
-0.045399 -0.0891007 0
-0.0544789 -0.106921 0
-0.0635587 -0.124741 0
-0.0726385 -0.142561 0
-0.0817183 -0.160381 0
-0.0907981 -0.178201 0
-0.045399 0.0891007 0
-0.0544789 0.106921 0
-0.0635587 0.124741 0
-0.0726385 0.142561 0
-0.0817183 0.160381 0
-0.0907981 0.178201 0
-0.0587785 -0.0809017 0
-0.0705342 -0.097082 0
-0.0822899 -0.113262 0
-0.0940456 -0.129443 0
-0.105801 -0.145623 0
-0.117557 -0.161803 0
-0.0587785 0.0809017 0
-0.0705342 0.097082 0
-0.0822899 0.113262 0
-0.0940456 0.129443 0
-0.105801 0.145623 0
-0.117557 0.161803 0
-0.0707107 -0.0707107 0
-0.0848528 -0.0848528 0
-0.0989949 -0.0989949 0
-0.113137 -0.113137 0
-0.127279 -0.127279 0
-0.141421 -0.141421 0
-0.0707107 0.0707107 0
-0.0848528 0.0848528 0
-0.0989949 0.0989949 0
-0.113137 0.113137 0
-0.127279 0.127279 0
-0.141421 0.141421 0
-0.0809017 -0.0587785 0
-0.097082 -0.0705342 0
-0.113262 -0.0822899 0
-0.129443 -0.0940456 0
-0.145623 -0.105801 0
-0.161803 -0.117557 0
-0.0809017 0.0587785 0
-0.097082 0.0705342 0
-0.113262 0.0822899 0
-0.129443 0.0940456 0
-0.145623 0.105801 0
-0.161803 0.117557 0
-0.0891007 -0.045399 0
-0.106921 -0.0544789 0
-0.124741 -0.0635587 0
-0.142561 -0.0726385 0
-0.160381 -0.0817183 0
-0.178201 -0.0907981 0
-0.0891007 0.045399 0
-0.106921 0.0544789 0
-0.124741 0.0635587 0
-0.142561 0.0726385 0
-0.160381 0.0817183 0
-0.178201 0.0907981 0
-0.0951057 -0.0309017 0
-0.114127 -0.037082 0
-0.133148 -0.0432624 0
-0.152169 -0.0494427 0
-0.17119 -0.0556231 0
-0.190211 -0.0618034 0
-0.0951057 0.0309017 0
-0.114127 0.037082 0
-0.133148 0.0432624 0
-0.152169 0.0494427 0
-0.17119 0.0556231 0
-0.190211 0.0618034 0
-0.0987688 -0.0156434 0
-0.118523 -0.0187721 0
-0.138276 -0.0219008 0
-0.15803 -0.0250295 0
-0.177784 -0.0281582 0
-0.197538 -0.0312869 0
-0.0987688 0.0156434 0
-0.118523 0.0187721 0
-0.138276 0.0219008 0
-0.15803 0.0250295 0
-0.177784 0.0281582 0
-0.197538 0.0312869 0
-0.1 1.22465e-17 0
-0.12 1.46958e-17 0
-0.14 1.71451e-17 0
-0.16 1.95943e-17 0
-0.18 2.20436e-17 0
-0.2 2.44929e-17 0
POLYGONS 200 1000
4 13 12 0 1 
4 25 24 12 13 
4 37 36 24 25 
4 49 48 36 37 
4 61 60 48 49 
4 73 72 60 61 
4 85 84 72 73 
4 97 96 84 85 
4 109 108 96 97 
4 121 120 108 109 
4 133 132 120 121 
4 145 144 132 133 
4 157 156 144 145 
4 169 168 156 157 
4 181 180 168 169 
4 193 192 180 181 
4 205 204 192 193 
4 217 216 204 205 
4 229 228 216 217 
4 235 234 228 229 
4 223 222 234 235 
4 211 210 222 223 
4 199 198 210 211 
4 187 186 198 199 
4 175 174 186 187 
4 163 162 174 175 
4 151 150 162 163 
4 139 138 150 151 
4 127 126 138 139 
4 115 114 126 127 
4 103 102 114 115 
4 91 90 102 103 
4 79 78 90 91 
4 67 66 78 79 
4 55 54 66 67 
4 43 42 54 55 
4 31 30 42 43 
4 19 18 30 31 
4 7 6 18 19 
4 1 0 6 7 
4 14 13 1 2 
4 26 25 13 14 
4 38 37 25 26 
4 50 49 37 38 
4 62 61 49 50 
4 74 73 61 62 
4 86 85 73 74 
4 98 97 85 86 
4 110 109 97 98 
4 122 121 109 110 
4 134 133 121 122 
4 146 145 133 134 
4 158 157 145 146 
4 170 169 157 158 
4 182 181 169 170 
4 194 193 181 182 
4 206 205 193 194 
4 218 217 205 206 
4 230 229 217 218 
4 236 235 229 230 
4 224 223 235 236 
4 212 211 223 224 
4 200 199 211 212 
4 188 187 199 200 
4 176 175 187 188 
4 164 163 175 176 
4 152 151 163 164 
4 140 139 151 152 
4 128 127 139 140 
4 116 115 127 128 
4 104 103 115 116 
4 92 91 103 104 
4 80 79 91 92 
4 68 67 79 80 
4 56 55 67 68 
4 44 43 55 56 
4 32 31 43 44 
4 20 19 31 32 
4 8 7 19 20 
4 2 1 7 8 
4 15 14 2 3 
4 27 26 14 15 
4 39 38 26 27 
4 51 50 38 39 
4 63 62 50 51 
4 75 74 62 63 
4 87 86 74 75 
4 99 98 86 87 
4 111 110 98 99 
4 123 122 110 111 
4 135 134 122 123 
4 147 146 134 135 
4 159 158 146 147 
4 171 170 158 159 
4 183 182 170 171 
4 195 194 182 183 
4 207 206 194 195 
4 219 218 206 207 
4 231 230 218 219 
4 237 236 230 231 
4 225 224 236 237 
4 213 212 224 225 
4 201 200 212 213 
4 189 188 200 201 
4 177 176 188 189 
4 165 164 176 177 
4 153 152 164 165 
4 141 140 152 153 
4 129 128 140 141 
4 117 116 128 129 
4 105 104 116 117 
4 93 92 104 105 
4 81 80 92 93 
4 69 68 80 81 
4 57 56 68 69 
4 45 44 56 57 
4 33 32 44 45 
4 21 20 32 33 
4 9 8 20 21 
4 3 2 8 9 
4 16 15 3 4 
4 28 27 15 16 
4 40 39 27 28 
4 52 51 39 40 
4 64 63 51 52 
4 76 75 63 64 
4 88 87 75 76 
4 100 99 87 88 
4 112 111 99 100 
4 124 123 111 112 
4 136 135 123 124 
4 148 147 135 136 
4 160 159 147 148 
4 172 171 159 160 
4 184 183 171 172 
4 196 195 183 184 
4 208 207 195 196 
4 220 219 207 208 
4 232 231 219 220 
4 238 237 231 232 
4 226 225 237 238 
4 214 213 225 226 
4 202 201 213 214 
4 190 189 201 202 
4 178 177 189 190 
4 166 165 177 178 
4 154 153 165 166 
4 142 141 153 154 
4 130 129 141 142 
4 118 117 129 130 
4 106 105 117 118 
4 94 93 105 106 
4 82 81 93 94 
4 70 69 81 82 
4 58 57 69 70 
4 46 45 57 58 
4 34 33 45 46 
4 22 21 33 34 
4 10 9 21 22 
4 4 3 9 10 
4 17 16 4 5 
4 29 28 16 17 
4 41 40 28 29 
4 53 52 40 41 
4 65 64 52 53 
4 77 76 64 65 
4 89 88 76 77 
4 101 100 88 89 
4 113 112 100 101 
4 125 124 112 113 
4 137 136 124 125 
4 149 148 136 137 
4 161 160 148 149 
4 173 172 160 161 
4 185 184 172 173 
4 197 196 184 185 
4 209 208 196 197 
4 221 220 208 209 
4 233 232 220 221 
4 239 238 232 233 
4 227 226 238 239 
4 215 214 226 227 
4 203 202 214 215 
4 191 190 202 203 
4 179 178 190 191 
4 167 166 178 179 
4 155 154 166 167 
4 143 142 154 155 
4 131 130 142 143 
4 119 118 130 131 
4 107 106 118 119 
4 95 94 106 107 
4 83 82 94 95 
4 71 70 82 83 
4 59 58 70 71 
4 47 46 58 59 
4 35 34 46 47 
4 23 22 34 35 
4 11 10 22 23 
4 5 4 10 11 
CELL_DATA 200
SCALARS ElementID int 1
LOOKUP_TABLE default
0
1
2
3
4
5
6
7
8
9
10
11
12
13
14
15
16
17
18
19
20
21
22
23
24
25
26
27
28
29
30
31
32
33
34
35
36
37
38
39
40
41
42
43
44
45
46
47
48
49
50
51
52
53
54
55
56
57
58
59
60
61
62
63
64
65
66
67
68
69
70
71
72
73
74
75
76
77
78
79
80
81
82
83
84
85
86
87
88
89
90
91
92
93
94
95
96
97
98
99
100
101
102
103
104
105
106
107
108
109
110
111
112
113
114
115
116
117
118
119
120
121
122
123
124
125
126
127
128
129
130
131
132
133
134
135
136
137
138
139
140
141
142
143
144
145
146
147
148
149
150
151
152
153
154
155
156
157
158
159
160
161
162
163
164
165
166
167
168
169
170
171
172
173
174
175
176
177
178
179
180
181
182
183
184
185
186
187
188
189
190
191
192
193
194
195
196
197
198
199
FIELD FieldData 3
Element_space 1 200 float
0.000344156 0.000344156 0.000344156 0.000344156 0.000344156 0.000344156 0.000344156 0.000344156 0.000344156 0.000344156 0.000344156 0.000344156 0.000344156 0.000344156 0.000344156 0.000344156 0.000344156 0.000344156 0.000344156 0.000344156 0.000344156 0.000344156 0.000344156 0.000344156 0.000344156 0.000344156 0.000344156 0.000344156 0.000344156 0.000344156 0.000344156 0.000344156 0.000344156 0.000344156 0.000344156 0.000344156 0.000344156 0.000344156 0.000344156 0.000344156 0.00040673 0.00040673 0.00040673 0.00040673 0.00040673 0.00040673 0.00040673 0.00040673 0.00040673 0.00040673 0.00040673 0.00040673 0.00040673 0.00040673 0.00040673 0.00040673 0.00040673 0.00040673 0.00040673 0.00040673 0.00040673 0.00040673 0.00040673 0.00040673 0.00040673 0.00040673 0.00040673 0.00040673 0.00040673 0.00040673 0.00040673 0.00040673 0.00040673 0.00040673 0.00040673 0.00040673 0.00040673 0.00040673 0.00040673 0.00040673 0.000469303 0.000469303 0.000469303 0.000469303 0.000469303 0.000469303 0.000469303 0.000469303 0.000469303 0.000469303 0.000469303 0.000469303 0.000469303 0.000469303 0.000469303 0.000469303 0.000469303 0.000469303 0.000469303 0.000469303 0.000469303 0.000469303 0.000469303 0.000469303 0.000469303 0.000469303 0.000469303 0.000469303 0.000469303 0.000469303 0.000469303 0.000469303 0.000469303 0.000469303 0.000469303 0.000469303 0.000469303 0.000469303 0.000469303 0.000469303 0.000531877 0.000531877 0.000531877 0.000531877 0.000531877 0.000531877 0.000531877 0.000531877 0.000531877 0.000531877 0.000531877 0.000531877 0.000531877 0.000531877 0.000531877 0.000531877 0.000531877 0.000531877 0.000531877 0.000531877 0.000531877 0.000531877 0.000531877 0.000531877 0.000531877 0.000531877 0.000531877 0.000531877 0.000531877 0.000531877 0.000531877 0.000531877 0.000531877 0.000531877 0.000531877 0.000531877 0.000531877 0.000531877 0.000531877 0.000531877 0.000594451 0.000594451 0.000594451 0.000594451 0.000594451 0.000594451 0.000594451 0.000594451 0.000594451 0.000594451 0.000594451 0.000594451 0.000594451 0.000594451 0.000594451 0.000594451 0.000594451 0.000594451 0.000594451 0.000594451 0.000594451 0.000594451 0.000594451 0.000594451 0.000594451 0.000594451 0.000594451 0.000594451 0.000594451 0.000594451 0.000594451 0.000594451 0.000594451 0.000594451 0.000594451 0.000594451 0.000594451 0.000594451 0.000594451 0.000594451 
Element_aspect_ratio 1 200 float
1.27455 1.27455 1.27455 1.27455 1.27455 1.27455 1.27455 1.27455 1.27455 1.27455 1.27455 1.27455 1.27455 1.27455 1.27455 1.27455 1.27455 1.27455 1.27455 1.27455 1.27455 1.27455 1.27455 1.27455 1.27455 1.27455 1.27455 1.27455 1.27455 1.27455 1.27455 1.27455 1.27455 1.27455 1.27455 1.27455 1.27455 1.27455 1.27455 1.27455 1.16667 1.16667 1.16667 1.16667 1.16667 1.16667 1.16667 1.16667 1.16667 1.16667 1.16667 1.16667 1.16667 1.16667 1.16667 1.16667 1.16667 1.16667 1.16667 1.16667 1.16667 1.16667 1.16667 1.16667 1.16667 1.16667 1.16667 1.16667 1.16667 1.16667 1.16667 1.16667 1.16667 1.16667 1.16667 1.16667 1.16667 1.16667 1.16667 1.16667 1.25535 1.25535 1.25535 1.25535 1.25535 1.25535 1.25535 1.25535 1.25535 1.25535 1.25535 1.25535 1.25535 1.25535 1.25535 1.25535 1.25535 1.25535 1.25535 1.25535 1.25535 1.25535 1.25535 1.25535 1.25535 1.25535 1.25535 1.25535 1.25535 1.25535 1.25535 1.25535 1.25535 1.25535 1.25535 1.25535 1.25535 1.25535 1.25535 1.25535 1.41226 1.41226 1.41226 1.41226 1.41226 1.41226 1.41226 1.41226 1.41226 1.41226 1.41226 1.41226 1.41226 1.41226 1.41226 1.41226 1.41226 1.41226 1.41226 1.41226 1.41226 1.41226 1.41226 1.41226 1.41226 1.41226 1.41226 1.41226 1.41226 1.41226 1.41226 1.41226 1.41226 1.41226 1.41226 1.41226 1.41226 1.41226 1.41226 1.41226 1.56918 1.56918 1.56918 1.56918 1.56918 1.56918 1.56918 1.56918 1.56918 1.56918 1.56918 1.56918 1.56918 1.56918 1.56918 1.56918 1.56918 1.56918 1.56918 1.56918 1.56918 1.56918 1.56918 1.56918 1.56918 1.56918 1.56918 1.56918 1.56918 1.56918 1.56918 1.56918 1.56918 1.56918 1.56918 1.56918 1.56918 1.56918 1.56918 1.56918 
Element_skew_angle 1 200 float
0 0 0 0 0 0 0 0 0 0 0 0 0 0 0 0 0 0 0 0 0 0 0 0 0 0 0 0 0 0 0 0 0 0 0 0 0 0 0 0 0 0 0 0 0 0 0 0 0 0 0 0 0 0 0 0 0 0 0 0 0 0 0 0 0 0 0 0 0 0 0 0 0 0 0 0 0 0 0 0 0 0 0 0 0 0 0 0 0 0 0 0 0 0 0 0 0 0 0 0 0 0 0 0 0 0 0 0 0 0 0 0 0 0 0 0 0 0 0 0 0 0 0 0 0 0 0 0 0 0 0 0 0 0 0 0 0 0 0 0 0 0 0 0 0 0 0 0 0 0 0 0 0 0 0 0 0 0 0 0 0 0 0 0 0 0 0 0 0 0 0 0 0 0 0 0 0 0 0 0 0 0 0 0 0 0 0 0 0 0 0 0 0 0 0 0 0 0 0 0 
POINT_DATA 240
SCALARS NodeID int 1
LOOKUP_TABLE my_table
0
1
2
3
4
5
6
7
8
9
10
11
12
13
14
15
16
17
18
19
20
21
22
23
24
25
26
27
28
29
30
31
32
33
34
35
36
37
38
39
40
41
42
43
44
45
46
47
48
49
50
51
52
53
54
55
56
57
58
59
60
61
62
63
64
65
66
67
68
69
70
71
72
73
74
75
76
77
78
79
80
81
82
83
84
85
86
87
88
89
90
91
92
93
94
95
96
97
98
99
100
101
102
103
104
105
106
107
108
109
110
111
112
113
114
115
116
117
118
119
120
121
122
123
124
125
126
127
128
129
130
131
132
133
134
135
136
137
138
139
140
141
142
143
144
145
146
147
148
149
150
151
152
153
154
155
156
157
158
159
160
161
162
163
164
165
166
167
168
169
170
171
172
173
174
175
176
177
178
179
180
181
182
183
184
185
186
187
188
189
190
191
192
193
194
195
196
197
198
199
200
201
202
203
204
205
206
207
208
209
210
211
212
213
214
215
216
217
218
219
220
221
222
223
224
225
226
227
228
229
230
231
232
233
234
235
236
237
238
239