# vtk DataFile Version 2.0
Solution
ASCII
DATASET POLYDATA
POINTS 25 float
-1 -1 0
-1 -0.5 0
-1 0 0
-1 0.5 0
-1 1 0
-0.5 -1 0
-0.5 -0.5 0
-0.5 0 0
-0.5 0.5 0
-0.5 1 0
0 -1 0
0 -0.5 0
0 0 0
0 0.5 0
0 1 0
0.5 -1 0
0.5 -0.5 0
0.5 0 0
0.5 0.5 0
0.5 1 0
1 -1 0
1 -0.5 0
1 0 0
1 0.5 0
1 1 0
POLYGONS 16 80
4 6 1 0 5 
4 7 2 1 6 
4 8 3 2 7 
4 9 4 3 8 
4 11 6 5 10 
4 12 7 6 11 
4 13 8 7 12 
4 14 9 8 13 
4 16 11 10 15 
4 17 12 11 16 
4 18 13 12 17 
4 19 14 13 18 
4 21 16 15 20 
4 22 17 16 21 
4 23 18 17 22 
4 24 19 18 23 
CELL_DATA 16
SCALARS ElementID int 1
LOOKUP_TABLE default
0
1
2
3
4
5
6
7
8
9
10
11
12
13
14
15
FIELD FieldData 8
Eps_xx 1 16 float
5.181347150236809e-06 5.181347150215555e-06 5.181347150216033e-06 5.18134715023721e-06 5.181347150314885e-06 5.181347150369188e-06 5.181347150368441e-06 5.181347150314159e-06 5.181347150196081e-06 5.181347150135083e-06 5.181347150135275e-06 5.181347150196485e-06 5.181347150300437e-06 5.181347150337514e-06 5.181347150337475e-06 5.181347150300304e-06 
Eps_yy 1 16 float
-1.502594854550048e-12 -1.502585378824682e-12 -1.502592303085843e-12 -1.502590213684152e-12 -1.502596900256343e-12 -1.502580896723187e-12 -1.502595715792383e-12 -1.502588060689379e-12 -1.502593012418474e-12 -1.502586188195036e-12 -1.502600626968157e-12 -1.502584275419791e-12 -1.502591580483097e-12 -1.502588215442129e-12 -1.502595414914752e-12 -1.502587055476223e-12 
Gamma_xy 1 16 float
-2.183146157151617e-17 -9.366097783731875e-18 1.117618918880104e-17 1.969954468229651e-17 1.218349909410319e-17 7.531495654876108e-18 -7.176094880709208e-18 -1.316117228461867e-17 5.493510872092215e-18 3.087935409179187e-18 -3.792091521209687e-18 -4.336566990533723e-18 -1.693342589504655e-17 -8.796884823935154e-18 8.115786280382833e-18 1.88239754653844e-17 
Eps_intensity 1 16 float
5.1813471502389e-06 5.181347150212908e-06 5.181347150216848e-06 5.181347150236979e-06 5.181347150317999e-06 5.1813471503643e-06 5.181347150370961e-06 5.181347150312852e-06 5.181347150197251e-06 5.18134715013284e-06 5.181347150140252e-06 5.181347150193286e-06 5.181347150300892e-06 5.181347150336284e-06 5.181347150339844e-06 5.181347150298494e-06 
Sigma_xx 1 16 float
0.9999999999957042 0.9999999999916021 0.9999999999916944 0.9999999999957815 1.000000000010773 1.000000000021253 1.000000000021109 1.000000000010633 0.9999999999878437 0.999999999976071 0.9999999999761081 0.9999999999879216 1.000000000007985 1.00000000001514 1.000000000015133 1.000000000007959 
Sigma_yy 1 16 float
-8.06929405113514e-13 1.021884400915355e-12 -3.144979764144655e-13 8.875773534740506e-14 -1.201746350179797e-12 1.886938588274317e-12 -9.731418083328061e-13 5.042900333738746e-13 -4.514002908780263e-13 8.656714186264998e-13 -1.921011782949844e-12 1.234840477523982e-12 -1.750309223137047e-13 4.744240597118103e-13 -9.150741585655296e-13 6.982953969078952e-13 
Tau_xy 1 16 float
-2.106735430698036e-12 -9.038281740199554e-13 1.078501943953736e-12 1.901005510550015e-12 1.175707321625835e-12 7.267891199266996e-13 -6.924929551654816e-13 -1.270052757150402e-12 5.301236454210415e-13 2.979856805699442e-13 -3.659367256750844e-13 -4.184785932277122e-13 -1.634075124990206e-12 -8.488991393289919e-13 7.831731489367302e-13 1.816513105620794e-12 
Sigma_intensity 1 16 float
0.9999999999961077 0.9999999999910911 0.9999999999918516 0.9999999999957371 1.000000000011374 1.00000000002031 1.000000000021596 1.000000000010381 0.9999999999880694 0.9999999999756382 0.9999999999770686 0.9999999999873042 1.000000000008072 1.000000000014903 1.00000000001559 1.000000000007609 
POINT_DATA 25
SCALARS NodeID int 1
LOOKUP_TABLE my_table
0
1
2
3
4
5
6
7
8
9
10
11
12
13
14
15
16
17
18
19
20
21
22
23
24
FIELD FieldData2 1
Displacement 3 25 float
0 1.502591647701127e-12 0 0 7.512962166251835e-13 0 0 0 0 0 -7.512967316677478e-13 0 0 -1.502591334290617e-12 0 2.590673575126068e-06 1.502590392282348e-12 0 2.59067357511074e-06 7.512909688082425e-13 0 2.590673575104815e-06 1.806608744216711e-18 0 2.590673575111218e-06 -7.512937648093515e-13 0 2.590673575125992e-06 -1.502589375870634e-12 0 5.181347150264227e-06 1.502591554936219e-12 0 5.181347150287467e-06 7.512940781539801e-13 0 5.181347150297276e-06 2.34363029083822e-18 0 5.181347150287197e-06 -7.512978007439965e-13 0 5.181347150264172e-06 -1.502590250372093e-12 0 7.772020725383824e-06 1.502591648699462e-12 0 7.77202072536395e-06 7.512961130632259e-13 0 7.772020725355877e-06 1.659391879356637e-18 0 7.772020725363872e-06 -7.512988232019901e-13 0 7.772020725383982e-06 -1.502590648993685e-12 0 1.036269430052086e-05 1.502590129952055e-12 0 1.036269430052735e-05 7.512940851051938e-13 0 1.036269430052999e-05 3.233344112090707e-19 0 1.036269430052723e-05 -7.512946089864709e-13 0 1.036269430052092e-05 -1.502589838670999e-12 0 